 Gaussian 16, Revision B.01,
 Gaussian 16:  EM64L-G16RevB.01 20-Dec-2017

 ----------------------------------------------------------------------
 # b3lyp/def2svp scf=(maxcycle=512, xqc) pop=(full,mbs,hirshfeld,nbo6re
 ad)
 ----------------------------------------------------------------------

 ----
 None
 ----
 Symbolic Z-matrix:
 Charge = -1 Multiplicity = 2

                         Standard orientation:
 ---------------------------------------------------------------------
 Center     Atomic      Atomic             Coordinates (Angstroms)
 Number     Number       Type             X           Y           Z
 ---------------------------------------------------------------------
      1          6           0        0.000000    0.000001   -0.000001
      2          1           0       -0.771611    0.696994   -0.299849
      3          1           0        0.894873    0.546096    0.268471
      4          1           0       -0.342423   -0.572591    0.852042
      5          1           0        0.219159   -0.670502   -0.820659
 ---------------------------------------------------------------------

 SCF Done:  E(UB3LYP) =  -40.3414801285     A.U. after   12 cycles

 The electronic state is 2-A.
 Alpha  occ. eigenvalues --   -9.91105  -0.44792  -0.15169  -0.15169  -0.15169
 Alpha  occ. eigenvalues --    0.21889
 Alpha virt. eigenvalues --    0.33687   0.33687   0.33687   0.64341   0.64341
 Alpha virt. eigenvalues --    0.64341   0.87756   0.90986   0.90986   0.90987
 Alpha virt. eigenvalues --    1.01941   1.33834   1.33834   1.78563   1.78563

  Beta  occ. eigenvalues --   -9.90458  -0.43879  -0.14532  -0.14532  -0.14532
  Beta virt. eigenvalues --    0.28064   0.36143   0.36143   0.36143   0.64777
  Beta virt. eigenvalues --    0.64778   0.64778   0.89162   0.91991   0.91991
  Beta virt. eigenvalues --    0.91992   1.02091   1.34141   1.34142   1.78806

 Mulliken charges and spin densities:
               1          2
     1  C    0.825836  -0.745631
     2  H   -0.456459   0.436408
     3  H   -0.456459   0.436408
     4  H   -0.456460   0.436408
     5  H   -0.456459   0.436407
 Sum of Mulliken charges =  -1.00000   1.00000

 Dipole moment (field-independent basis, Debye):
    X=              0.0000    Y=              0.0000    Z=             -0.0000  Tot=              0.0000
 Quadrupole moment (field-independent basis, Debye-Ang):
   XX=            -16.7633   YY=            -16.7633   ZZ=            -16.7633
   XY=             -0.0000   XZ=             -0.0000   YZ=              0.0000

 Summary of Natural Population Analysis:

                                     Natural Population
             Natural    ---------------------------------------------
  Atom No    Charge        Core      Valence    Rydberg      Total
 --------------------------------------------------------------------
    C  1   -0.36740      0.99996     2.36516    0.00229     3.36740
    H  2    0.09185      0.00000     0.40064    0.00750     0.40815
    H  3    0.09185      0.00000     0.40064    0.00750     0.40815
    H  4    0.09185      0.00000     0.40064    0.00750     0.40815
    H  5    0.09185      0.00000     0.40065    0.00750     0.40815
 ====================================================================
 * Total *  0.00000      0.99996     3.96774    0.03230     5.00000

 Normal termination of Gaussian 16 at Mon Feb  3 15:17:47 2020.
