 Gaussian 16, Revision B.01,
 Gaussian 16:  EM64L-G16RevB.01 20-Dec-2017

 ----------------------------------------------------------------------
 # b3lyp/def2svp scf=(maxcycle=512, xqc) pop=(full,mbs,hirshfeld,nbo6re
 ad)
 ----------------------------------------------------------------------

 ----
 None
 ----
 Symbolic Z-matrix:
 Charge = -1 Multiplicity = 2

                         Standard orientation:
 ---------------------------------------------------------------------
 Center     Atomic      Atomic             Coordinates (Angstroms)
 Number     Number       Type             X           Y           Z
 ---------------------------------------------------------------------
      1          6           0       -1.212700    0.655940   -0.127320
      2          6           0       -1.182340   -0.720190    0.022490
      3          6           0        0.030360   -1.376130    0.149810
      4          6           0        1.212700   -0.655940    0.127320
      5          6           0        1.182340    0.720190   -0.022490
      6          6           0       -0.030360    1.376130   -0.149810
      7          1           0       -2.159020    1.167790   -0.226700
      8          1           0       -2.104960   -1.282190    0.040000
      9          1           0        0.054050   -2.449980    0.266700
     10          1           0        2.159020   -1.167790    0.226700
     11          1           0        2.104960    1.282190   -0.040000
     12          1           0       -0.054050    2.449980   -0.266700
 ---------------------------------------------------------------------

 SCF Done:  E(UB3LYP) =  -232.008741016     A.U. after   34 cycles

 The electronic state is 2-AU.
 Alpha  occ. eigenvalues --   -9.96142  -9.96140  -9.96102  -9.96096  -9.93361
 Alpha  occ. eigenvalues --   -9.93357  -0.62318  -0.51936  -0.51446  -0.38019
 Alpha  occ. eigenvalues --   -0.37989  -0.30971  -0.24809  -0.22288  -0.21003
 Alpha  occ. eigenvalues --   -0.20083  -0.15621  -0.12928  -0.12638  -0.04636
 Alpha  occ. eigenvalues --   -0.04602   0.15399
 Alpha virt. eigenvalues --    0.20968   0.23254   0.26678   0.27184   0.30364
 Alpha virt. eigenvalues --    0.30786   0.32473   0.35646   0.49817   0.50073
 Alpha virt. eigenvalues --    0.51418   0.51720   0.57364   0.60873   0.61956

  Beta  occ. eigenvalues --   -9.96086  -9.96083  -9.96046  -9.96040  -9.92748
  Beta  occ. eigenvalues --   -9.92744  -0.61651  -0.51454  -0.50410  -0.37862
  Beta  occ. eigenvalues --   -0.36825  -0.30695  -0.24317  -0.21932  -0.20904
  Beta  occ. eigenvalues --   -0.19733  -0.13792  -0.12710  -0.12362  -0.03285
  Beta  occ. eigenvalues --   -0.01322
  Beta virt. eigenvalues --    0.21361   0.23359   0.23715   0.26702   0.27338
  Beta virt. eigenvalues --    0.30450   0.31068   0.32668   0.38513   0.50245
  Beta virt. eigenvalues --    0.50494   0.51658   0.52049   0.57724   0.61103

 Mulliken charges and spin densities:
               1          2
     1  C    0.006104   0.032500
     2  C    0.006103   0.032476
     3  C   -0.085022   0.470163
     4  C    0.006104   0.032500
     5  C    0.006103   0.032476
     6  C   -0.085022   0.470163
     7  H   -0.136063  -0.004182
     8  H   -0.136063  -0.004181
     9  H   -0.155058  -0.026776
    10  H   -0.136063  -0.004182
    11  H   -0.136063  -0.004181
    12  H   -0.155058  -0.026776
 Sum of Mulliken charges =  -1.00000   1.00000

 Dipole moment (field-independent basis, Debye):
    X=             -0.0000    Y=             -0.0000    Z=              0.0000  Tot=              0.0000
 Quadrupole moment (field-independent basis, Debye-Ang):
   XX=            -43.9049   YY=            -46.2645   ZZ=            -43.3457
   XY=              0.0494   XZ=             -0.0330   YZ=              0.3210

 Summary of Natural Population Analysis:

                                     Natural Population
             Natural    ---------------------------------------------
  Atom No    Charge        Core      Valence    Rydberg      Total
 --------------------------------------------------------------------
    C  1   -0.11361      0.99997     2.10600    0.00764     3.11361
    C  2   -0.11362      0.99997     2.10600    0.00764     3.11362
    C  3   -0.01414      0.99997     2.00617    0.00800     3.01414
    C  4   -0.11361      0.99997     2.10600    0.00764     3.11361
    C  5   -0.11362      0.99997     2.10600    0.00764     3.11362
    C  6   -0.01414      0.99997     2.00617    0.00800     3.01414
    H  7    0.08306      0.00000     0.41514    0.00180     0.41694
    H  8    0.08306      0.00000     0.41514    0.00180     0.41694
    H  9    0.07525      0.00000     0.42304    0.00171     0.42475
    H 10    0.08306      0.00000     0.41514    0.00180     0.41694
    H 11    0.08306      0.00000     0.41514    0.00180     0.41694
    H 12    0.07525      0.00000     0.42304    0.00171     0.42475
 ====================================================================
 * Total *  0.00000      5.99985    14.94298    0.05717    21.00000

 Normal termination of Gaussian 16 at Mon Feb  3 15:18:34 2020.
