 Gaussian 16, Revision B.01,
 Gaussian 16:  EM64L-G16RevB.01 20-Dec-2017

 ----------------------------------------------------------------------
 # b3lyp/def2svp nmr=GIAO scf=(maxcycle=512, xqc) pop=(full,mbs,hirshfe
 ld,nbo6read)
 ----------------------------------------------------------------------

 ----
 None
 ----
 Symbolic Z-matrix:
 Charge =  0 Multiplicity = 1

                         Standard orientation:
 ---------------------------------------------------------------------
 Center     Atomic      Atomic             Coordinates (Angstroms)
 Number     Number       Type             X           Y           Z
 ---------------------------------------------------------------------
      1          6           0       -1.212700    0.655940   -0.127320
      2          6           0       -1.182340   -0.720190    0.022490
      3          6           0        0.030360   -1.376130    0.149810
      4          6           0        1.212700   -0.655940    0.127320
      5          6           0        1.182340    0.720190   -0.022490
      6          6           0       -0.030360    1.376130   -0.149810
      7          1           0       -2.159020    1.167790   -0.226700
      8          1           0       -2.104960   -1.282190    0.040000
      9          1           0        0.054050   -2.449980    0.266700
     10          1           0        2.159020   -1.167790    0.226700
     11          1           0        2.104960    1.282190   -0.040000
     12          1           0       -0.054050    2.449980   -0.266700
 ---------------------------------------------------------------------

 SCF Done:  E(RB3LYP) =  -232.082903840     A.U. after   10 cycles

      1  C    Isotropic =    67.5289   Anisotropy =   177.1063

      2  C    Isotropic =    67.5277   Anisotropy =   177.1074

      3  C    Isotropic =    67.5331   Anisotropy =   177.1056

      4  C    Isotropic =    67.5289   Anisotropy =   177.1063

      5  C    Isotropic =    67.5277   Anisotropy =   177.1074

      6  C    Isotropic =    67.5331   Anisotropy =   177.1056

      7  H    Isotropic =    24.5758   Anisotropy =     4.8507

      8  H    Isotropic =    24.5757   Anisotropy =     4.8511

      9  H    Isotropic =    24.5764   Anisotropy =     4.8501

     10  H    Isotropic =    24.5758   Anisotropy =     4.8507

     11  H    Isotropic =    24.5757   Anisotropy =     4.8511

     12  H    Isotropic =    24.5764   Anisotropy =     4.8501

 The electronic state is 1-AG.
 Alpha  occ. eigenvalues --  -10.18666 -10.18647 -10.18647 -10.18602 -10.18602
 Alpha  occ. eigenvalues --  -10.18588  -0.85204  -0.74116  -0.74116  -0.59973
 Alpha  occ. eigenvalues --   -0.59973  -0.52691  -0.45696  -0.45189  -0.42434
 Alpha  occ. eigenvalues --   -0.42434  -0.37263  -0.34659  -0.34659  -0.25747
 Alpha  occ. eigenvalues --   -0.25747
 Alpha virt. eigenvalues --   -0.00580  -0.00580   0.05967   0.10069   0.10069
 Alpha virt. eigenvalues --    0.13966   0.13966   0.15530   0.16231   0.29371
 Alpha virt. eigenvalues --    0.29371   0.30677   0.30677   0.36411   0.40597

 Mulliken charges:
               1
     1  C    0.024747
     2  C    0.024742
     3  C    0.024750
     4  C    0.024747
     5  C    0.024742
     6  C    0.024750
     7  H   -0.024745
     8  H   -0.024747
     9  H   -0.024747
    10  H   -0.024745
    11  H   -0.024747
    12  H   -0.024747
 Sum of Mulliken charges =  -0.00000

 Dipole moment (field-independent basis, Debye):
    X=              0.0000    Y=             -0.0000    Z=              0.0000  Tot=              0.0000
 Quadrupole moment (field-independent basis, Debye-Ang):
   XX=            -32.2151   YY=            -32.2772   ZZ=            -38.7693
   XY=              0.0331   XZ=              0.3067   YZ=             -0.7083

 Summary of Natural Population Analysis:

                                     Natural Population
             Natural    ---------------------------------------------
  Atom No    Charge        Core      Valence    Rydberg      Total
 --------------------------------------------------------------------
    C  1   -0.21914      1.99995     4.20400    0.01519     6.21914
    C  2   -0.21914      1.99995     4.20400    0.01519     6.21914
    C  3   -0.21914      1.99995     4.20400    0.01519     6.21914
    C  4   -0.21914      1.99995     4.20400    0.01519     6.21914
    C  5   -0.21914      1.99995     4.20400    0.01519     6.21914
    C  6   -0.21914      1.99995     4.20400    0.01519     6.21914
    H  7    0.21914      0.00000     0.77798    0.00288     0.78086
    H  8    0.21914      0.00000     0.77798    0.00288     0.78086
    H  9    0.21914      0.00000     0.77798    0.00288     0.78086
    H 10    0.21914      0.00000     0.77798    0.00288     0.78086
    H 11    0.21914      0.00000     0.77798    0.00288     0.78086
    H 12    0.21914      0.00000     0.77798    0.00288     0.78086
 ====================================================================
 * Total *  0.00000     11.99970    29.89190    0.10840    42.00000

 Normal termination of Gaussian 16 at Mon Feb  3 15:18:01 2020.
