 Gaussian 16, Revision B.01,
 Gaussian 16:  EM64L-G16RevB.01 20-Dec-2017

 ----------------------------------------------------------------------
 # b3lyp/def2svp nmr=GIAO scf=(maxcycle=512, xqc) pop=(full,mbs,hirshfe
 ld,nbo6read)
 ----------------------------------------------------------------------

 ----
 None
 ----
 Symbolic Z-matrix:
 Charge =  0 Multiplicity = 1

                         Standard orientation:
 ---------------------------------------------------------------------
 Center     Atomic      Atomic             Coordinates (Angstroms)
 Number     Number       Type             X           Y           Z
 ---------------------------------------------------------------------
      1          6           0        0.000000    0.000001   -0.000001
      2          1           0       -0.771611    0.696994   -0.299849
      3          1           0        0.894873    0.546096    0.268471
      4          1           0       -0.342423   -0.572591    0.852042
      5          1           0        0.219159   -0.670502   -0.820659
 ---------------------------------------------------------------------

 SCF Done:  E(RB3LYP) =  -40.4870354157     A.U. after    8 cycles

      1  C    Isotropic =   197.3052   Anisotropy =     0.0033

      2  H    Isotropic =    31.6868   Anisotropy =     9.1538

      3  H    Isotropic =    31.6867   Anisotropy =     9.1540

      4  H    Isotropic =    31.6867   Anisotropy =     9.1538

      5  H    Isotropic =    31.6868   Anisotropy =     9.1541

 The electronic state is 1-A.
 Alpha  occ. eigenvalues --  -10.16942  -0.68896  -0.39300  -0.39300  -0.39299
 Alpha virt. eigenvalues --    0.07351   0.14628   0.14628   0.14628   0.41619
 Alpha virt. eigenvalues --    0.41619   0.41619   0.66136   0.68569   0.68569
 Alpha virt. eigenvalues --    0.68569   0.78426   1.09306   1.09306   1.54149

 Mulliken charges:
               1
     1  C   -0.095533
     2  H    0.023884
     3  H    0.023884
     4  H    0.023883
     5  H    0.023883
 Sum of Mulliken charges =  -0.00000

 Dipole moment (field-independent basis, Debye):
    X=             -0.0000    Y=             -0.0000    Z=              0.0000  Tot=              0.0000
 Quadrupole moment (field-independent basis, Debye-Ang):
   XX=             -8.2866   YY=             -8.2866   ZZ=             -8.2866
   XY=             -0.0000   XZ=             -0.0000   YZ=              0.0000

 Summary of Natural Population Analysis:

                                     Natural Population
             Natural    ---------------------------------------------
  Atom No    Charge        Core      Valence    Rydberg      Total
 --------------------------------------------------------------------
    C  1   -0.84094      1.99993     4.83836    0.00265     6.84094
    H  2    0.21024      0.00000     0.78816    0.00160     0.78976
    H  3    0.21024      0.00000     0.78816    0.00160     0.78976
    H  4    0.21024      0.00000     0.78816    0.00160     0.78976
    H  5    0.21024      0.00000     0.78816    0.00160     0.78976
 ====================================================================
 * Total *  0.00000      1.99993     7.99101    0.00906    10.00000

 Normal termination of Gaussian 16 at Mon Feb  3 15:17:38 2020.
