 Gaussian 16, Revision B.01,
 Gaussian 16:  EM64L-G16RevB.01 20-Dec-2017

 ----------------------------------------------------------------------
 # b3lyp/def2svp scf=(maxcycle=512, xqc) pop=(full,mbs,hirshfeld,nbo6re
 ad)
 ----------------------------------------------------------------------

 ----
 None
 ----
 Symbolic Z-matrix:
 Charge =  1 Multiplicity = 2

                         Standard orientation:
 ---------------------------------------------------------------------
 Center     Atomic      Atomic             Coordinates (Angstroms)
 Number     Number       Type             X           Y           Z
 ---------------------------------------------------------------------
      1          6           0        0.000000    0.000001   -0.000001
      2          1           0       -0.771611    0.696994   -0.299849
      3          1           0        0.894873    0.546096    0.268471
      4          1           0       -0.342423   -0.572591    0.852042
      5          1           0        0.219159   -0.670502   -0.820659
 ---------------------------------------------------------------------

 SCF Done:  E(UB3LYP) =  -39.9660423124     A.U. after   25 cycles

 The electronic state is 2-A.
 Alpha  occ. eigenvalues --  -10.57410  -1.08793  -0.80271  -0.77222  -0.77222
 Alpha virt. eigenvalues --   -0.18636  -0.14350  -0.13788  -0.13788   0.09286
 Alpha virt. eigenvalues --    0.09629   0.09629   0.33436   0.34588   0.35991
 Alpha virt. eigenvalues --    0.35991   0.45591   0.70167   0.72154   1.17664

  Beta  occ. eigenvalues --  -10.56601  -1.03760  -0.74489  -0.74489
  Beta virt. eigenvalues --   -0.64998  -0.17588  -0.12455  -0.12455  -0.11553
  Beta virt. eigenvalues --    0.11262   0.11537   0.11537   0.36074   0.37372
  Beta virt. eigenvalues --    0.37372   0.38828   0.47433   0.73962   0.75202

 Mulliken charges and spin densities:
               1          2
     1  C    0.032877   0.491594
     2  H    0.241780   0.127099
     3  H    0.241779   0.127095
     4  H    0.241783   0.127109
     5  H    0.241780   0.127103
 Sum of Mulliken charges =   1.00000   1.00000

 Dipole moment (field-independent basis, Debye):
    X=             -0.0000    Y=             -0.0000    Z=              0.0000  Tot=              0.0000
 Quadrupole moment (field-independent basis, Debye-Ang):
   XX=             -4.8514   YY=             -5.0938   ZZ=             -4.0947
   XY=             -0.0117   XZ=              0.4929   YZ=             -0.0236

 Summary of Natural Population Analysis:

                                     Natural Population
             Natural    ---------------------------------------------
  Atom No    Charge        Core      Valence    Rydberg      Total
 --------------------------------------------------------------------
    C  1    0.06832      0.99997     1.93038    0.00134     2.93168
    H  2    0.23292      0.00000     0.26650    0.00058     0.26708
    H  3    0.23292      0.00000     0.26650    0.00058     0.26708
    H  4    0.23293      0.00000     0.26649    0.00058     0.26707
    H  5    0.23292      0.00000     0.26649    0.00058     0.26708
 ====================================================================
 * Total *  1.00000      0.99997     2.99636    0.00367     4.00000

 Normal termination of Gaussian 16 at Mon Feb  3 15:17:43 2020.
