 Gaussian 16, Revision B.01,
 Gaussian 16:  EM64L-G16RevB.01 20-Dec-2017

 ----------------------------------------------------------------------
 # b3lyp/def2svp scf=(maxcycle=512, xqc) pop=(full,mbs,hirshfeld,nbo6re
 ad)
 ----------------------------------------------------------------------

 ----
 None
 ----
 Symbolic Z-matrix:
 Charge =  1 Multiplicity = 2

                         Standard orientation:
 ---------------------------------------------------------------------
 Center     Atomic      Atomic             Coordinates (Angstroms)
 Number     Number       Type             X           Y           Z
 ---------------------------------------------------------------------
      1          6           0       -1.212700    0.655940   -0.127320
      2          6           0       -1.182340   -0.720190    0.022490
      3          6           0        0.030360   -1.376130    0.149810
      4          6           0        1.212700   -0.655940    0.127320
      5          6           0        1.182340    0.720190   -0.022490
      6          6           0       -0.030360    1.376130   -0.149810
      7          1           0       -2.159020    1.167790   -0.226700
      8          1           0       -2.104960   -1.282190    0.040000
      9          1           0        0.054050   -2.449980    0.266700
     10          1           0        2.159020   -1.167790    0.226700
     11          1           0        2.104960    1.282190   -0.040000
     12          1           0       -0.054050    2.449980   -0.266700
 ---------------------------------------------------------------------

 SCF Done:  E(UB3LYP) =  -231.741220257     A.U. after   26 cycles

 The electronic state is 2-AG.
 Alpha  occ. eigenvalues --  -10.45466 -10.45461 -10.42171 -10.42168 -10.42131
 Alpha  occ. eigenvalues --  -10.42125  -1.10354  -0.99742  -0.97442  -0.83729
 Alpha  occ. eigenvalues --   -0.83582  -0.75505  -0.69575  -0.68037  -0.65898
 Alpha  occ. eigenvalues --   -0.64619  -0.62193  -0.57627  -0.57468  -0.52135
 Alpha  occ. eigenvalues --   -0.48755
 Alpha virt. eigenvalues --   -0.25730  -0.23581  -0.12063  -0.08281  -0.07879
 Alpha virt. eigenvalues --   -0.06925  -0.03805  -0.03151  -0.00708   0.07517
 Alpha virt. eigenvalues --    0.07783   0.08573   0.08821   0.13942   0.19464

  Beta  occ. eigenvalues --  -10.44803 -10.44800 -10.42125 -10.42121 -10.42083
  Beta  occ. eigenvalues --  -10.42078  -1.09242  -0.97801  -0.97194  -0.83100
  Beta  occ. eigenvalues --   -0.82761  -0.75251  -0.69110  -0.67567  -0.65485
  Beta  occ. eigenvalues --   -0.64587  -0.58893  -0.57437  -0.57158  -0.48239
  Beta virt. eigenvalues --   -0.42592  -0.22236  -0.21835  -0.11917  -0.07689
  Beta virt. eigenvalues --   -0.06918  -0.06057  -0.03382  -0.03070  -0.00476
  Beta virt. eigenvalues --    0.07985   0.08240   0.08895   0.09211   0.14458

 Mulliken charges and spin densities:
               1          2
     1  C    0.063723   0.020199
     2  C    0.063707   0.020114
     3  C    0.138936   0.483939
     4  C    0.063723   0.020199
     5  C    0.063707   0.020114
     6  C    0.138936   0.483939
     7  H    0.073523  -0.002556
     8  H    0.073518  -0.002552
     9  H    0.086593  -0.019144
    10  H    0.073523  -0.002556
    11  H    0.073518  -0.002552
    12  H    0.086593  -0.019144
 Sum of Mulliken charges =   1.00000   1.00000

 Dipole moment (field-independent basis, Debye):
    X=              0.0000    Y=             -0.0000    Z=              0.0000  Tot=              0.0000
 Quadrupole moment (field-independent basis, Debye-Ang):
   XX=            -22.4102   YY=            -19.3211   ZZ=            -34.5028
   XY=             -0.0098   XZ=              0.5752   YZ=             -1.6597

 Summary of Natural Population Analysis:

                                     Natural Population
             Natural    ---------------------------------------------
  Atom No    Charge        Core      Valence    Rydberg      Total
 --------------------------------------------------------------------
    C  1   -0.06086      0.99997     2.05329    0.00760     3.06086
    C  2   -0.06092      0.99997     2.05335    0.00760     3.06092
    C  3    0.23338      0.99997     1.75939    0.00726     2.76662
    C  4   -0.06086      0.99997     2.05329    0.00760     3.06086
    C  5   -0.06092      0.99997     2.05335    0.00760     3.06092
    C  6    0.23338      0.99997     1.75939    0.00726     2.76662
    H  7    0.13270      0.00000     0.36600    0.00130     0.36730
    H  8    0.13270      0.00000     0.36600    0.00130     0.36730
    H  9    0.12301      0.00000     0.37559    0.00140     0.37699
    H 10    0.13270      0.00000     0.36600    0.00130     0.36730
    H 11    0.13270      0.00000     0.36600    0.00130     0.36730
    H 12    0.12301      0.00000     0.37559    0.00140     0.37699
 ====================================================================
 * Total *  1.00000      5.99985    13.94722    0.05293    20.00000

 Normal termination of Gaussian 16 at Mon Feb  3 15:18:15 2020.
